# vtk DataFile Version 3.0
Temperature field
ASCII
DATASET STRUCTURED_POINTS
DIMENSIONS 100 50 25
ORIGIN 0 0 0
SPACING 0.0010101 0.00122449 0.000416667
POINT_DATA 125000
SCALARS Temperature float 1
LOOKUP_TABLE default
294.495
294.502
294.511
294.522
294.536
294.552
294.571
294.592
294.615
294.641
294.669
294.699
294.732
294.766
294.803
294.842
294.884
294.927
294.972
295.019
295.068
295.118
295.17
295.223
295.278
295.333
295.389
295.445
295.502
295.559
295.615
295.671
295.726
295.78
295.832
295.882
295.931
295.977
296.02
296.061
296.098
296.132
296.162
296.189
296.212
296.231
296.245
296.256
296.262
296.264
296.262
296.255
296.244
296.229
296.209
296.186
296.159
296.128
296.093
296.055
296.014
295.97
295.924
295.875
295.824
295.771
295.716
295.661
295.604
295.547
295.49
295.432
295.375
295.318
295.262
295.207
295.152
295.1
295.048
294.998
294.95
294.904
294.86
294.817
294.777
294.739
294.702
294.669
294.637
294.607
294.58
294.555
294.533
294.513
294.495
294.479
294.466
294.455
294.446
294.439
294.499
294.506
294.515
294.526
294.54
294.557
294.575
294.596
294.62
294.645
294.673
294.704
294.736
294.771
294.808
294.848
294.889
294.932
294.978
295.025
295.074
295.124
295.176
295.23
295.284
295.34
295.396
295.452
295.509
295.566
295.623
295.679
295.734
295.788
295.84
295.891
295.939
295.985
296.029
296.07
296.107
296.141
296.172
296.198
296.221
296.24
296.255
296.265
296.272
296.274
296.271
296.264
296.253
296.238
296.219
296.195
296.168
296.137
296.102
296.064
296.023
295.979
295.932
295.883
295.832
295.779
295.724
295.668
295.612
295.554
295.497
295.439
295.382
295.325
295.268
295.213
295.159
295.106
295.054
295.004
294.956
294.909
294.865
294.822
294.782
294.743
294.707
294.673
294.641
294.612
294.585
294.56
294.537
294.517
294.499
294.483
294.47
294.459
294.45
294.443
294.504
294.51
294.52
294.531
294.545
294.562
294.58
294.602
294.625
294.651
294.679
294.71
294.742
294.778
294.815
294.854
294.896
294.94
294.986
295.033
295.083
295.134
295.186
295.24
295.295
295.351
295.408
295.465
295.523
295.58
295.638
295.694
295.75
295.805
295.858
295.91
295.959
296.006
296.05
296.091
296.129
296.163
296.194
296.221
296.245
296.264
296.279
296.289
296.296
296.298
296.295
296.288
296.277
296.262
296.242
296.218
296.191
296.159
296.124
296.086
296.044
295.999
295.952
295.902
295.85
295.796
295.741
295.684
295.627
295.569
295.51
295.452
295.394
295.336
295.279
295.223
295.168
295.115
295.063
295.012
294.964
294.917
294.872
294.829
294.788
294.75
294.713
294.679
294.647
294.617
294.59
294.565
294.542
294.522
294.503
294.488
294.474
294.463
294.454
294.448
294.509
294.516
294.525
294.537
294.551
294.567
294.586
294.607
294.631
294.657
294.686
294.717
294.75
294.785
294.823
294.863
294.905
294.95
294.996
295.044
295.094
295.146
295.2
295.254
295.31
295.368
295.426
295.484
295.543
295.602
295.66
295.718
295.776
295.832
295.886
295.939
295.989
296.037
296.082
296.125
296.163
296.199
296.231
296.258
296.282
296.302
296.317
296.328
296.334
296.336
296.334
296.327
296.315
296.3
296.28
296.255
296.227
296.195
296.159
296.119
296.076
296.031
295.982
295.931
295.878
295.823
295.766
295.708
295.649
295.59
295.53
295.471
295.411
295.353
295.295
295.238
295.182
295.127
295.075
295.023
294.974
294.927
294.881
294.838
294.796
294.757
294.72
294.686
294.653
294.623
294.596
294.57
294.548
294.527
294.509
294.493
294.479
294.468
294.459
294.452
294.514
294.521
294.531
294.542
294.557
294.573
294.592
294.614
294.638
294.664
294.693
294.724
294.758
294.794
294.833
294.873
294.916
294.961
295.008
295.058
295.109
295.162
295.217
295.273
295.33
295.389
295.448
295.509
295.569
295.63
295.69
295.75
295.81
295.867
295.924
295.978
296.031
296.08
296.127
296.171
296.211
296.248
296.281
296.309
296.334
296.354
296.37
296.381
296.388
296.39
296.387
296.38
296.368
296.352
296.331
296.306
296.277
296.244
296.206
296.165
296.121
296.074
296.023
295.971
295.915
295.858
295.8
295.74
295.679
295.618
295.557
295.495
295.434
295.374
295.314
295.256
295.199
295.143
295.089
295.037
294.986
294.938
294.892
294.848
294.806
294.766
294.729
294.694
294.661
294.63
294.602
294.577
294.554
294.533
294.514
294.498
294.485
294.473
294.464
294.458
294.52
294.527
294.537
294.549
294.563
294.58
294.599
294.621
294.645
294.672
294.701
294.733
294.768
294.804
294.843
294.885
294.929
294.975
295.023
295.074
295.126
295.181
295.237
295.295
295.354
295.415
295.476
295.539
295.602
295.665
295.728
295.791
295.852
295.913
295.972
296.029
296.083
296.135
296.184
296.23
296.272
296.31
296.345
296.375
296.4
296.421
296.438
296.45
296.457
296.459
296.456
296.449
296.436
296.419
296.398
296.371
296.341
296.306
296.267
296.225
296.178
296.129
296.076
296.021
295.963
295.904
295.843
295.78
295.717
295.653
295.589
295.525
295.462
295.4
295.338
295.278
295.219
295.162
295.106
295.053
295.001
294.952
294.904
294.859
294.816
294.776
294.738
294.702
294.669
294.638
294.61
294.584
294.56
294.539
294.52
294.504
294.49
294.479
294.47
294.463
294.527
294.534
294.543
294.555
294.57
294.587
294.606
294.629
294.653
294.681
294.711
294.743
294.778
294.815
294.855
294.898
294.943
294.99
295.04
295.092
295.146
295.202
295.261
295.321
295.382
295.445
295.51
295.575
295.641
295.707
295.773
295.839
295.904
295.968
296.03
296.09
296.148
296.203
296.254
296.302
296.347
296.387
296.423
296.455
296.482
296.504
296.521
296.534
296.541
296.543
296.54
296.533
296.52
296.502
296.479
296.452
296.42
296.383
296.342
296.297
296.248
296.196
296.141
296.082
296.021
295.959
295.894
295.828
295.762
295.695
295.628
295.561
295.495
295.43
295.366
295.304
295.243
295.183
295.126
295.071
295.018
294.967
294.918
294.872
294.828
294.787
294.748
294.712
294.678
294.646
294.618
294.591
294.567
294.546
294.527
294.51
294.496
294.485
294.476
294.469
294.533
294.54
294.55
294.562
294.577
294.594
294.614
294.637
294.662
294.69
294.72
294.754
294.789
294.828
294.869
294.912
294.959
295.007
295.059
295.112
295.168
295.227
295.287
295.35
295.414
295.48
295.548
295.616
295.686
295.756
295.826
295.896
295.965
296.033
296.099
296.163
296.224
296.282
296.337
296.389
296.436
296.479
296.517
296.55
296.579
296.602
296.621
296.634
296.642
296.644
296.641
296.633
296.619
296.6
296.576
296.547
296.513
296.474
296.431
296.383
296.331
296.276
296.217
296.155
296.09
296.023
295.955
295.885
295.815
295.744
295.673
295.603
295.533
295.465
295.398
295.333
295.269
295.208
295.148
295.091
295.036
294.984
294.934
294.886
294.842
294.799
294.759
294.722
294.687
294.655
294.626
294.599
294.575
294.553
294.534
294.517
294.503
294.491
294.482
294.475
294.54
294.547
294.557
294.569
294.584
294.602
294.622
294.645
294.671
294.7
294.731
294.765
294.801
294.841
294.883
294.928
294.976
295.026
295.079
295.135
295.193
295.254
295.317
295.382
295.45
295.519
295.591
295.663
295.737
295.811
295.886
295.961
296.035
296.107
296.178
296.247
296.313
296.376
296.434
296.489
296.54
296.586
296.626
296.662
296.692
296.717
296.737
296.751
296.759
296.762
296.759
296.75
296.735
296.715
296.69
296.659
296.623
296.581
296.535
296.484
296.429
296.369
296.306
296.239
296.17
296.098
296.025
295.95
295.875
295.799
295.724
295.65
295.576
295.504
295.434
295.365
295.299
295.235
295.173
295.113
295.057
295.002
294.951
294.902
294.856
294.812
294.771
294.733
294.698
294.665
294.635
294.607
294.582
294.56
294.541
294.524
294.509
294.498
294.488
294.482
294.547
294.554
294.564
294.577
294.592
294.61
294.631
294.654
294.68
294.71
294.742
294.776
294.814
294.855
294.898
294.944
294.994
295.046
295.101
295.159
295.219
295.283
295.349
295.418
295.489
295.562
295.638
295.715
295.794
295.874
295.954
296.034
296.114
296.193
296.269
296.344
296.415
296.483
296.546
296.605
296.659
296.709
296.752
296.791
296.823
296.85
296.871
296.885
296.894
296.897
296.894
296.884
296.869
296.848
296.82
296.787
296.749
296.704
296.655
296.6
296.54
296.476
296.408
296.336
296.261
296.183
296.104
296.024
295.943
295.862
295.781
295.702
295.623
295.547
295.473
295.401
295.331
295.264
295.199
295.137
295.078
295.022
294.969
294.918
294.871
294.826
294.784
294.745
294.708
294.675
294.644
294.616
294.591
294.568
294.548
294.531
294.516
294.504
294.495
294.488
294.555
294.562
294.572
294.584
294.6
294.618
294.639
294.663
294.69
294.72
294.753
294.788
294.827
294.869
294.914
294.962
295.013
295.067
295.124
295.184
295.247
295.314
295.383
295.456
295.531
295.609
295.689
295.772
295.856
295.942
296.029
296.116
296.203
296.288
296.372
296.453
296.53
296.604
296.673
296.737
296.796
296.848
296.896
296.937
296.972
297
297.023
297.038
297.048
297.051
297.047
297.037
297.021
296.998
296.969
296.934
296.892
296.844
296.791
296.732
296.667
296.597
296.523
296.445
296.364
296.279
296.193
296.105
296.018
295.93
295.843
295.758
295.675
295.593
295.515
295.439
295.365
295.295
295.227
295.163
295.101
295.043
294.988
294.935
294.886
294.84
294.797
294.756
294.719
294.685
294.653
294.625
294.599
294.576
294.555
294.538
294.523
294.511
294.501
294.495
294.562
294.569
294.579
294.592
294.608
294.626
294.648
294.672
294.7
294.73
294.764
294.801
294.841
294.884
294.93
294.979
295.032
295.088
295.148
295.21
295.277
295.346
295.419
295.496
295.576
295.658
295.744
295.833
295.924
296.017
296.111
296.206
296.301
296.395
296.487
296.576
296.661
296.741
296.816
296.885
296.949
297.006
297.057
297.101
297.139
297.17
297.193
297.211
297.221
297.224
297.22
297.209
297.192
297.167
297.136
297.098
297.053
297.002
296.944
296.88
296.81
296.734
296.653
296.568
296.478
296.386
296.291
296.196
296.1
296.005
295.911
295.819
295.73
295.643
295.559
295.479
295.401
295.327
295.256
295.189
295.125
295.064
295.007
294.953
294.902
294.854
294.81
294.769
294.73
294.695
294.663
294.633
294.607
294.584
294.563
294.545
294.53
294.518
294.508
294.501
294.569
294.576
294.586
294.599
294.615
294.634
294.656
294.681
294.71
294.741
294.775
294.813
294.854
294.898
294.946
294.997
295.052
295.11
295.172
295.237
295.307
295.38
295.457
295.537
295.622
295.71
295.802
295.897
295.996
296.097
296.2
296.304
296.409
296.513
296.614
296.712
296.806
296.894
296.976
297.052
297.121
297.183
297.237
297.285
297.325
297.358
297.384
297.402
297.413
297.417
297.413
297.401
297.382
297.356
297.323
297.282
297.234
297.178
297.116
297.046
296.97
296.887
296.798
296.704
296.606
296.503
296.399
296.294
296.188
296.084
295.983
295.883
295.787
295.695
295.605
295.52
295.438
295.36
295.286
295.216
295.149
295.086
295.027
294.971
294.918
294.869
294.823
294.781
294.741
294.705
294.672
294.642
294.615
294.591
294.57
294.552
294.537
294.524
294.515
294.508
294.576
294.583
294.593
294.607
294.623
294.642
294.665
294.69
294.719
294.751
294.787
294.825
294.867
294.913
294.962
295.015
295.072
295.132
295.196
295.265
295.337
295.414
295.495
295.58
295.669
295.763
295.862
295.964
296.071
296.181
296.294
296.409
296.526
296.641
296.754
296.863
296.966
297.063
297.153
297.235
297.31
297.377
297.437
297.488
297.531
297.567
297.594
297.614
297.625
297.629
297.625
297.613
297.592
297.564
297.529
297.485
297.433
297.373
297.305
297.23
297.147
297.056
296.959
296.855
296.745
296.632
296.516
296.399
296.283
296.169
296.058
295.95
295.847
295.748
295.653
295.562
295.476
295.394
295.317
295.243
295.174
295.108
295.046
294.988
294.934
294.883
294.836
294.793
294.752
294.715
294.681
294.651
294.623
294.599
294.577
294.559
294.543
294.531
294.521
294.514
294.583
294.59
294.6
294.614
294.63
294.65
294.673
294.699
294.728
294.761
294.797
294.837
294.88
294.927
294.978
295.033
295.091
295.154
295.221
295.292
295.367
295.448
295.533
295.622
295.717
295.817
295.922
296.033
296.148
296.268
296.393
296.521
296.65
296.779
296.905
297.026
297.141
297.247
297.346
297.436
297.517
297.589
297.653
297.708
297.755
297.792
297.822
297.843
297.855
297.859
297.854
297.841
297.82
297.79
297.752
297.705
297.649
297.585
297.512
297.43
297.34
297.241
297.133
297.018
296.897
296.77
296.64
296.51
296.381
296.256
296.135
296.019
295.908
295.802
295.701
295.605
295.514
295.428
295.347
295.27
295.198
295.13
295.066
295.006
294.95
294.898
294.849
294.804
294.763
294.725
294.69
294.659
294.631
294.606
294.584
294.565
294.55
294.537
294.527
294.52
294.589
294.596
294.607
294.62
294.637
294.657
294.68
294.707
294.737
294.771
294.808
294.848
294.893
294.941
294.993
295.05
295.11
295.175
295.244
295.318
295.397
295.481
295.57
295.664
295.764
295.871
295.983
296.101
296.226
296.357
296.493
296.635
296.779
296.924
297.065
297.2
297.326
297.443
297.55
297.648
297.736
297.814
297.882
297.941
297.99
298.031
298.062
298.084
298.097
298.101
298.097
298.083
298.06
298.029
297.988
297.938
297.878
297.809
297.731
297.643
297.544
297.436
297.319
297.192
297.056
296.915
296.769
296.624
296.482
296.344
296.213
296.087
295.968
295.855
295.748
295.647
295.551
295.461
295.376
295.296
295.221
295.15
295.084
295.023
294.965
294.911
294.862
294.816
294.773
294.734
294.699
294.667
294.638
294.613
294.591
294.572
294.556
294.543
294.533
294.526
294.595
294.602
294.613
294.626
294.643
294.664
294.688
294.715
294.745
294.78
294.817
294.859
294.905
294.954
295.008
295.066
295.128
295.195
295.266
295.343
295.425
295.512
295.605
295.705
295.81
295.922
296.041
296.168
296.302
296.443
296.593
296.748
296.908
297.069
297.226
297.375
297.513
297.641
297.757
297.862
297.957
298.04
298.113
298.175
298.228
298.271
298.304
298.327
298.341
298.346
298.341
298.326
298.302
298.269
298.225
298.172
298.109
298.036
297.952
297.857
297.751
297.634
297.506
297.367
297.217
297.06
296.898
296.738
296.581
296.431
296.289
296.154
296.026
295.906
295.793
295.687
295.587
295.493
295.404
295.321
295.243
295.17
295.102
295.039
294.979
294.924
294.873
294.826
294.783
294.743
294.707
294.674
294.645
294.619
294.597
294.577
294.561
294.548
294.538
294.531
294.6
294.607
294.618
294.632
294.649
294.67
294.694
294.722
294.753
294.788
294.826
294.869
294.915
294.966
295.021
295.08
295.144
295.213
295.287
295.366
295.451
295.542
295.639
295.742
295.853
295.971
296.096
296.231
296.373
296.525
296.686
296.855
297.03
297.206
297.377
297.539
297.689
297.827
297.952
298.064
298.165
298.253
298.33
298.397
298.452
298.497
298.532
298.557
298.571
298.576
298.571
298.556
298.53
298.495
298.45
298.393
298.327
298.249
298.16
298.059
297.946
297.82
297.682
297.531
297.369
297.197
297.02
296.845
296.675
296.513
296.36
296.217
296.082
295.955
295.836
295.725
295.62
295.522
295.43
295.344
295.264
295.189
295.119
295.053
294.992
294.936
294.884
294.836
294.791
294.751
294.714
294.681
294.651
294.625
294.602
294.583
294.566
294.553
294.543
294.536
294.605
294.612
294.623
294.637
294.654
294.675
294.7
294.728
294.76
294.795
294.834
294.878
294.925
294.977
295.033
295.094
295.159
295.23
295.306
295.387
295.475
295.569
295.669
295.777
295.892
296.015
296.147
296.288
296.439
296.6
296.771
296.952
297.139
297.328
297.512
297.685
297.845
297.992
298.125
298.244
298.35
298.443
298.524
298.594
298.652
298.699
298.736
298.761
298.777
298.782
298.776
298.76
298.734
298.697
298.649
298.591
298.52
298.439
298.345
298.238
298.119
297.985
297.838
297.677
297.503
297.319
297.129
296.941
296.76
296.588
296.426
296.274
296.132
295.999
295.875
295.759
295.65
295.549
295.454
295.365
295.283
295.205
295.133
295.066
295.004
294.947
294.893
294.844
294.799
294.758
294.721
294.687
294.657
294.63
294.607
294.587
294.571
294.557
294.547
294.54
294.609
294.616
294.627
294.641
294.659
294.68
294.705
294.733
294.765
294.801
294.841
294.885
294.933
294.986
295.043
295.105
295.172
295.244
295.322
295.406
295.496
295.592
295.696
295.807
295.926
296.054
296.191
296.338
296.496
296.665
296.845
297.036
297.233
297.432
297.626
297.808
297.978
298.132
298.271
298.396
298.507
298.604
298.689
298.762
298.822
298.872
298.909
298.936
298.952
298.957
298.952
298.935
298.908
298.869
298.82
298.759
298.686
298.6
298.502
298.39
298.265
298.125
297.97
297.8
297.617
297.423
297.223
297.025
296.834
296.653
296.483
296.324
296.176
296.038
295.909
295.789
295.677
295.572
295.475
295.384
295.299
295.22
295.146
295.078
295.015
294.956
294.902
294.852
294.806
294.764
294.726
294.692
294.662
294.635
294.611
294.591
294.574
294.561
294.551
294.543
294.612
294.619
294.63
294.644
294.662
294.684
294.709
294.737
294.77
294.806
294.847
294.891
294.94
294.994
295.052
295.115
295.183
295.257
295.336
295.421
295.513
295.612
295.718
295.832
295.955
296.087
296.228
296.381
296.544
296.72
296.907
297.105
297.31
297.517
297.719
297.909
298.085
298.245
298.39
298.52
298.635
298.736
298.824
298.899
298.961
299.012
299.051
299.079
299.095
299.101
299.095
299.078
299.05
299.01
298.959
298.896
298.82
298.732
298.63
298.514
298.384
298.239
298.077
297.901
297.71
297.508
297.3
297.094
296.895
296.707
296.531
296.367
296.214
296.071
295.938
295.815
295.699
295.592
295.492
295.399
295.313
295.232
295.157
295.087
295.023
294.963
294.908
294.858
294.811
294.769
294.731
294.696
294.665
294.638
294.615
294.594
294.577
294.564
294.553
294.546
294.614
294.621
294.632
294.647
294.665
294.686
294.712
294.741
294.773
294.81
294.851
294.896
294.945
295
295.058
295.122
295.191
295.266
295.347
295.433
295.527
295.628
295.736
295.852
295.978
296.113
296.258
296.414
296.582
296.762
296.955
297.158
297.369
297.583
297.79
297.986
298.167
298.332
298.481
298.615
298.733
298.837
298.927
299.004
299.069
299.121
299.161
299.189
299.206
299.212
299.206
299.188
299.159
299.119
299.066
299.001
298.924
298.833
298.728
298.609
298.475
298.326
298.16
297.978
297.781
297.573
297.359
297.147
296.943
296.75
296.569
296.4
296.243
296.097
295.961
295.835
295.717
295.608
295.506
295.411
295.323
295.241
295.165
295.095
295.03
294.969
294.914
294.862
294.816
294.773
294.734
294.699
294.668
294.641
294.617
294.597
294.579
294.566
294.555
294.548
294.616
294.623
294.634
294.648
294.666
294.688
294.713
294.743
294.776
294.813
294.854
294.899
294.949
295.004
295.063
295.127
295.197
295.273
295.354
295.442
295.537
295.639
295.748
295.867
295.994
296.131
296.279
296.438
296.609
296.793
296.989
297.196
297.412
297.629
297.84
298.04
298.225
298.394
298.546
298.682
298.802
298.908
299
299.079
299.144
299.197
299.238
299.267
299.284
299.29
299.284
299.266
299.237
299.195
299.142
299.076
298.997
298.904
298.798
298.676
298.54
298.387
298.218
298.032
297.832
297.62
297.402
297.185
296.977
296.78
296.596
296.424
296.264
296.115
295.977
295.849
295.73
295.619
295.516
295.42
295.331
295.248
295.171
295.1
295.034
294.973
294.917
294.866
294.818
294.775
294.736
294.701
294.67
294.643
294.618
294.598
294.581
294.567
294.557
294.55
294.616
294.624
294.634
294.649
294.667
294.689
294.714
294.744
294.777
294.814
294.855
294.901
294.951
295.005
295.065
295.13
295.2
295.276
295.358
295.446
295.542
295.645
295.755
295.875
296.003
296.142
296.291
296.452
296.625
296.81
297.009
297.218
297.436
297.656
297.87
298.072
298.259
298.429
298.583
298.721
298.843
298.95
299.043
299.122
299.189
299.242
299.283
299.313
299.33
299.336
299.329
299.312
299.282
299.24
299.186
299.119
299.039
298.946
298.838
298.715
298.577
298.423
298.251
298.064
297.861
297.646
297.426
297.208
296.997
296.798
296.612
296.438
296.276
296.126
295.986
295.857
295.737
295.625
295.521
295.424
295.335
295.251
295.174
295.103
295.036
294.975
294.919
294.867
294.82
294.777
294.737
294.702
294.671
294.643
294.619
294.598
294.581
294.568
294.557
294.55
294.616
294.623
294.634
294.649
294.667
294.688
294.714
294.743
294.776
294.814
294.855
294.901
294.951
295.005
295.065
295.13
295.2
295.276
295.358
295.447
295.543
295.646
295.757
295.876
296.005
296.144
296.294
296.455
296.629
296.815
297.014
297.225
297.443
297.663
297.878
298.081
298.269
298.44
298.594
298.732
298.855
298.963
299.056
299.135
299.202
299.256
299.297
299.326
299.344
299.349
299.343
299.325
299.295
299.253
299.199
299.132
299.052
298.958
298.85
298.727
298.588
298.433
298.261
298.073
297.869
297.654
297.433
297.214
297.003
296.803
296.616
296.441
296.279
296.128
295.988
295.859
295.738
295.626
295.522
295.425
295.335
295.252
295.174
295.103
295.036
294.975
294.919
294.867
294.819
294.776
294.737
294.702
294.671
294.643
294.619
294.598
294.581
294.567
294.557
294.55
294.614
294.622
294.633
294.647
294.665
294.687
294.712
294.742
294.775
294.812
294.853
294.899
294.949
295.003
295.063
295.128
295.198
295.274
295.355
295.444
295.539
295.642
295.752
295.872
296
296.138
296.288
296.448
296.621
296.807
297.005
297.215
297.432
297.652
297.866
298.068
298.255
298.425
298.579
298.717
298.839
298.946
299.039
299.118
299.184
299.238
299.279
299.308
299.325
299.331
299.325
299.307
299.277
299.235
299.181
299.115
299.035
298.941
298.834
298.711
298.573
298.418
298.247
298.06
297.857
297.643
297.422
297.204
296.994
296.795
296.608
296.434
296.273
296.123
295.983
295.854
295.734
295.622
295.518
295.422
295.332
295.249
295.172
295.1
295.034
294.973
294.917
294.865
294.818
294.775
294.736
294.7
294.669
294.641
294.617
294.597
294.58
294.566
294.556
294.549
294.612
294.62
294.63
294.645
294.663
294.685
294.71
294.739
294.772
294.809
294.85
294.895
294.945
294.999
295.058
295.123
295.192
295.268
295.349
295.437
295.531
295.633
295.743
295.861
295.988
296.125
296.272
296.431
296.602
296.786
296.982
297.189
297.404
297.621
297.832
298.032
298.217
298.385
298.537
298.673
298.794
298.9
298.991
299.07
299.135
299.188
299.229
299.258
299.275
299.28
299.274
299.257
299.227
299.186
299.133
299.067
298.988
298.895
298.789
298.668
298.531
298.378
298.209
298.024
297.824
297.612
297.394
297.178
296.97
296.773
296.589
296.417
296.257
296.109
295.971
295.843
295.724
295.613
295.51
295.415
295.326
295.243
295.166
295.095
295.03
294.969
294.913
294.862
294.814
294.772
294.733
294.698
294.667
294.639
294.615
294.595
294.578
294.564
294.554
294.546
294.609
294.616
294.627
294.642
294.66
294.681
294.706
294.735
294.768
294.804
294.845
294.89
294.939
294.993
295.052
295.115
295.184
295.259
295.339
295.426
295.519
295.619
295.727
295.843
295.969
296.103
296.248
296.404
296.572
296.752
296.944
297.147
297.358
297.571
297.778
297.974
298.155
298.32
298.469
298.602
298.72
298.824
298.914
298.991
299.055
299.107
299.147
299.175
299.192
299.197
299.192
299.174
299.145
299.105
299.052
298.988
298.91
298.819
298.715
298.596
298.463
298.313
298.147
297.966
297.77
297.562
297.348
297.136
296.932
296.74
296.559
296.39
296.233
296.087
295.952
295.826
295.709
295.599
295.498
295.403
295.316
295.234
295.158
295.088
295.023
294.963
294.907
294.856
294.81
294.767
294.729
294.694
294.663
294.636
294.612
294.592
294.575
294.561
294.551
294.544
294.605
294.612
294.623
294.637
294.655
294.676
294.701
294.73
294.762
294.799
294.839
294.883
294.932
294.985
295.043
295.106
295.173
295.247
295.326
295.411
295.502
295.601
295.707
295.82
295.943
296.074
296.215
296.367
296.531
296.706
296.892
297.09
297.295
297.501
297.703
297.893
298.068
298.228
298.373
298.502
298.617
298.718
298.806
298.88
298.943
298.994
299.033
299.06
299.077
299.082
299.076
299.059
299.031
298.992
298.94
298.877
298.802
298.714
298.612
298.497
298.367
298.222
298.061
297.885
297.694
297.492
297.285
297.079
296.881
296.693
296.518
296.353
296.201
296.058
295.926
295.803
295.688
295.581
295.482
295.389
295.303
295.222
295.148
295.078
295.014
294.955
294.9
294.85
294.804
294.762
294.723
294.689
294.658
294.631
294.608
294.588
294.571
294.557
294.547
294.54
294.6
294.607
294.618
294.632
294.65
294.671
294.696
294.724
294.756
294.792
294.831
294.875
294.923
294.975
295.032
295.094
295.16
295.232
295.309
295.393
295.482
295.578
295.681
295.792
295.911
296.038
296.175
296.322
296.479
296.648
296.827
297.017
297.214
297.412
297.606
297.788
297.957
298.11
298.249
298.374
298.485
298.582
298.666
298.739
298.799
298.848
298.886
298.913
298.929
298.934
298.928
298.912
298.884
298.846
298.797
298.736
298.663
298.578
298.48
298.369
298.243
298.104
297.949
297.78
297.597
297.403
297.204
297.006
296.816
296.635
296.466
296.308
296.16
296.022
295.894
295.774
295.663
295.559
295.461
295.371
295.286
295.208
295.135
295.067
295.004
294.945
294.891
294.842
294.796
294.755
294.717
294.683
294.653
294.626
294.603
294.583
294.566
294.553
294.542
294.535
294.594
294.602
294.612
294.626
294.644
294.665
294.689
294.717
294.748
294.783
294.822
294.865
294.912
294.964
295.019
295.08
295.145
295.215
295.291
295.372
295.459
295.552
295.652
295.759
295.873
295.996
296.127
296.268
296.418
296.579
296.749
296.929
297.116
297.304
297.487
297.66
297.82
297.966
298.098
298.217
298.323
298.416
298.497
298.566
298.624
298.671
298.707
298.733
298.748
298.753
298.748
298.732
298.706
298.669
298.621
298.563
298.493
298.411
298.318
298.212
298.092
297.96
297.813
297.652
297.479
297.295
297.106
296.919
296.738
296.566
296.405
296.254
296.112
295.98
295.857
295.741
295.633
295.532
295.438
295.35
295.268
295.191
295.119
295.053
294.991
294.934
294.881
294.832
294.788
294.747
294.71
294.676
294.647
294.62
294.597
294.577
294.561
294.547
294.537
294.53
294.588
294.595
294.606
294.62
294.637
294.658
294.681
294.709
294.74
294.774
294.812
294.855
294.901
294.951
295.005
295.064
295.128
295.196
295.269
295.348
295.432
295.522
295.618
295.721
295.831
295.948
296.073
296.207
296.349
296.5
296.66
296.829
297.003
297.178
297.349
297.51
297.66
297.797
297.921
298.033
298.133
298.221
298.298
298.364
298.419
298.464
298.499
298.523
298.538
298.542
298.537
298.522
298.497
298.462
298.416
298.361
298.294
298.217
298.128
298.028
297.915
297.79
297.652
297.502
297.34
297.169
296.993
296.818
296.649
296.488
296.336
296.193
296.059
295.933
295.815
295.704
295.6
295.503
295.411
295.326
295.246
295.172
295.102
295.037
294.977
294.921
294.869
294.822
294.778
294.738
294.702
294.669
294.639
294.613
294.591
294.571
294.555
294.542
294.532
294.525
294.581
294.588
294.599
294.613
294.63
294.65
294.673
294.7
294.73
294.764
294.802
294.843
294.888
294.937
294.99
295.047
295.109
295.175
295.246
295.322
295.403
295.49
295.582
295.68
295.785
295.896
296.015
296.14
296.273
296.414
296.563
296.718
296.877
297.037
297.193
297.341
297.479
297.606
297.722
297.826
297.92
298.003
298.075
298.138
298.19
298.232
298.265
298.288
298.302
298.307
298.302
298.287
298.264
298.23
298.187
298.134
298.072
297.999
297.915
297.821
297.716
297.599
297.472
297.333
297.185
297.028
296.867
296.707
296.551
296.402
296.261
296.127
296
295.881
295.769
295.663
295.564
295.47
295.382
295.3
295.223
295.151
295.083
295.02
294.962
294.907
294.857
294.81
294.767
294.728
294.692
294.66
294.631
294.606
294.583
294.564
294.548
294.535
294.525
294.518
294.574
294.581
294.591
294.605
294.621
294.641
294.664
294.691
294.72
294.753
294.79
294.83
294.874
294.922
294.973
295.029
295.088
295.152
295.221
295.294
295.372
295.455
295.543
295.637
295.736
295.841
295.953
296.07
296.194
296.324
296.46
296.6
296.744
296.887
297.028
297.161
297.287
297.403
297.51
297.607
297.694
297.771
297.839
297.898
297.947
297.987
298.018
298.04
298.053
298.057
298.052
298.039
298.016
297.985
297.944
297.894
297.835
297.767
297.689
297.601
297.504
297.397
297.28
297.154
297.019
296.878
296.734
296.59
296.448
296.312
296.181
296.056
295.938
295.826
295.72
295.62
295.525
295.436
295.352
295.273
295.198
295.129
295.063
295.002
294.945
294.892
294.843
294.798
294.756
294.718
294.683
294.651
294.623
294.598
294.576
294.557
294.541
294.528
294.518
294.512
294.566
294.573
294.583
294.597
294.613
294.632
294.655
294.681
294.71
294.742
294.778
294.817
294.859
294.906
294.956
295.009
295.067
295.129
295.195
295.265
295.34
295.419
295.503
295.592
295.686
295.785
295.889
295.998
296.112
296.231
296.355
296.482
296.61
296.738
296.863
296.983
297.097
297.203
297.3
297.389
297.47
297.542
297.605
297.659
297.705
297.743
297.772
297.793
297.805
297.809
297.804
297.792
297.77
297.741
297.703
297.656
297.601
297.537
297.465
297.384
297.294
297.196
297.09
296.976
296.855
296.729
296.6
296.471
296.344
296.219
296.099
295.984
295.874
295.769
295.669
295.575
295.485
295.4
295.32
295.244
295.172
295.105
295.042
294.983
294.928
294.876
294.829
294.785
294.744
294.706
294.672
294.642
294.614
294.589
294.568
294.549
294.534
294.521
294.511
294.504
294.558
294.565
294.575
294.588
294.604
294.623
294.645
294.67
294.699
294.73
294.765
294.803
294.844
294.889
294.938
294.99
295.045
295.105
295.168
295.235
295.307
295.382
295.462
295.546
295.635
295.727
295.824
295.926
296.031
296.14
296.252
296.366
296.481
296.595
296.707
296.815
296.917
297.013
297.102
297.184
297.258
297.324
297.383
297.434
297.476
297.511
297.538
297.558
297.569
297.573
297.569
297.557
297.537
297.509
297.474
297.43
297.379
297.32
297.253
297.178
297.096
297.007
296.91
296.807
296.699
296.586
296.471
296.356
296.241
296.128
296.018
295.912
295.81
295.712
295.618
295.529
295.444
295.363
295.287
295.214
295.146
295.081
295.02
294.963
294.91
294.86
294.814
294.771
294.731
294.695
294.662
294.632
294.604
294.58
294.559
294.541
294.526
294.513
294.504
294.497
294.549
294.556
294.566
294.579
294.595
294.614
294.635
294.66
294.687
294.718
294.752
294.789
294.829
294.872
294.919
294.969
295.023
295.08
295.141
295.205
295.274
295.345
295.421
295.5
295.584
295.67
295.761
295.855
295.952
296.051
296.153
296.256
296.36
296.462
296.562
296.659
296.752
296.839
296.92
296.994
297.062
297.124
297.178
297.225
297.265
297.297
297.322
297.34
297.351
297.354
297.351
297.339
297.321
297.295
297.262
297.222
297.174
297.119
297.058
296.989
296.914
296.832
296.744
296.651
296.554
296.453
296.35
296.246
296.142
296.039
295.939
295.841
295.746
295.655
295.567
295.483
295.403
295.326
295.253
295.184
295.119
295.057
294.998
294.943
294.892
294.844
294.799
294.757
294.718
294.683
294.651
294.621
294.595
294.571
294.551
294.533
294.518
294.505
294.496
294.489
294.541
294.548
294.558
294.57
294.586
294.604
294.625
294.649
294.676
294.706
294.739
294.775
294.814
294.856
294.901
294.949
295.001
295.056
295.114
295.176
295.241
295.309
295.381
295.455
295.534
295.615
295.699
295.786
295.876
295.967
296.06
296.154
296.247
296.34
296.43
296.517
296.601
296.68
296.754
296.822
296.885
296.941
296.991
297.035
297.072
297.102
297.125
297.142
297.152
297.155
297.152
297.141
297.124
297.1
297.069
297.032
296.988
296.937
296.88
296.817
296.748
296.674
296.594
296.51
296.422
296.331
296.237
296.143
296.049
295.955
295.863
295.773
295.685
295.6
295.518
295.438